Materials Id,Formula,Spacegroup,Formation Energy (eV),E Above Hull (eV),Band Gap (eV),Has Bandstructure,Volume,Nsites,Theoretical,Count,Density (gm/cc),Crystal System,Polycrystalline Dielectric Constant
mp-570485,SrAlSiH,P3m1,-0.472,0,0.62,TRUE,76.911,4,FALSE,,3.102,trigonal," 13.237179666666618,"
mp-570844,Ga3Os,P42/mnm,-0.268,0,0.967,TRUE,293.647,16,FALSE,,9.034,tetragonal," 17.492714,"
mp-866141,TiFe2Si,Fm3m,-0.694,0,0.402,TRUE,46.106,4,TRUE,,6.758,cubic," 38.312301044557536,"
mp-1106381,NaAs,P21/c,-0.392,0,0.582,TRUE,391.237,16,FALSE,,3.325,monoclinic," 10.801170333333332,"
mp-22786,ThNiSn,F43m,-0.695,0,0.353,TRUE,71.323,3,FALSE,,9.533,cubic," 31.98347299999993,"
mp-675989,Tl9BiSe6,I4/m,-0.378,0,0.831,TRUE,489.538,16,TRUE,,8.555,tetragonal," 16.741017910038796,"
mp-861950,Ca2SbAu,Fm3m,-0.918,0,0.276,TRUE,106.535,4,TRUE,,6.217,cubic," 60.186937000000235,"
mp-1102430,SbTeIr,P213,-0.415,0,0.967,TRUE,273.354,12,FALSE,,10.73,cubic," 20.591890000000003,"
mp-862947,Ba2BiAu,Fm3m,-0.866,0,0.425,TRUE,149.437,4,TRUE,,7.563,cubic," 22.219633000000016,"
mp-867203,Sr2CdAs2,Cmc21,-0.954,0,1.066,TRUE,294.581,10,FALSE,,4.932,orthorhombic," 10.457772333333333,"
mp-1207108,BaAlGeH,P3m1,-0.525,0,0.893,TRUE,87.318,4,FALSE,,4.525,trigonal," 15.04641766666665,"
mp-20832,Zn(InTe2)2,I4,-0.375,0,1.276,TRUE,245.897,7,FALSE,,5.439,tetragonal," 10.118069,"
mp-1018093,CaGaGeH,P3m1,-0.467,0,0.496,TRUE,71.675,4,TRUE,,4.25,trigonal," 16.50949823583294,"
mp-29849,Ag3SnP7,P21/m,-0.05,0,0.949,TRUE,452.467,22,FALSE,,4.838,monoclinic," 16.136333333333337,"
mp-30252,Na10CaSn12,I43m,-0.277,0,0.761,TRUE,722.597,23,FALSE,,3.894,cubic," 15.790000000000118,"
mp-1219343,ScCuSe2,C2/m,-1.109,0,0.71,FALSE,167.318,8,TRUE,,5.288,monoclinic," 11.713012,"
mp-22811,InCuSe2,I42d,-0.432,0,0.199,TRUE,203.946,8,FALSE,,5.476,tetragonal," 16.48133333333522,"
mp-9920,TiS3,P21/m,-1.463,0,0.232,TRUE,162.685,8,FALSE,,2.941,monoclinic," 10.036666666666669,"
mp-23116,CuBiSeO,P4/nmm,-0.838,0,0.345,TRUE,141.455,8,FALSE,,8.628,tetragonal," 15.689445333333337,"
mp-2455,As2Os,Pnnm,-0.219,0,0.756,TRUE,104.69,6,FALSE,,10.788,orthorhombic," 20.885,"
mp-7943,LiAs,P21/c,-0.487,0,0.357,FALSE,292.818,16,FALSE,,3.714,monoclinic," 15.447666666666668,"
mp-1009084,BeSnAs2,I42d,-0.18,0,0.704,TRUE,181.678,8,TRUE,,5.074,tetragonal," 13.428254000000017,"
mp-10519,Cu2SnS3,Cc,-0.661,0,0.041,TRUE,245.631,12,FALSE,,4.624,monoclinic," 20.28322766666666,"
mp-1102531,PRhSe,P213,-0.632,0,1.189,TRUE,201.899,12,FALSE,,7.002,cubic," 20.069493999999995,"
mp-1212441,Hf3Ni3Sb4,I43d,-0.567,0,0.581,FALSE,374.874,20,TRUE,,10.619,cubic," 31.75966200000001,"
mp-12904,HoAgTe2,P421m,-0.907,0,1.313,TRUE,237.895,8,FALSE,,7.371,tetragonal," 11.247040333333333,"
mp-1714,FeSi2,Cmce,-0.444,0,0.698,TRUE,300.079,24,FALSE,,4.959,orthorhombic," 24.635333333329072,"
mp-20817,GePtSe,Pca21,-0.553,0,0.627,TRUE,227.741,12,FALSE,,10.111,orthorhombic," 23.47385,"
mp-570370,SnPSe3,Pc,-0.246,0,1.433,TRUE,546.313,20,FALSE,,4.7,monoclinic," 10.383366666666667,"
mp-8507,Sr(P3Pt2)2,C2/c,-0.805,0,0.446,TRUE,388.989,22,FALSE,,8.997,monoclinic," 18.82933333333489,"
mp-27267,ReP4,Pbca,-0.321,0,0.757,TRUE,637.233,40,FALSE,,6.465,orthorhombic," 18.325333333333333,"
mp-3078,CdSiAs2,I42d,-0.125,0,0.89,TRUE,198.732,8,FALSE,,4.852,tetragonal," 14.074613666666663,"
mp-4666,CdSiP2,I42d,-0.202,0,1.426,TRUE,173.748,8,FALSE,,3.87,tetragonal," 10.787988333333333,"
mp-569522,MnP4,P1,-0.361,0,0.524,TRUE,439.201,30,FALSE,,4.057,triclinic," 19.673000000000005,"
mp-7173,ScSbPt,F43m,-1.17,0,0.66,TRUE,65.312,3,FALSE,,9.199,cubic," 18.409560000000038,"
mp-484,Te3As2,C2/m,-0.015,0,0.581,TRUE,308.061,10,FALSE,,5.742,monoclinic," 32.76733333333333,"
mp-1019105,KMgBi,P4/nmm,-0.471,0,0.378,TRUE,207.309,6,FALSE,,4.364,tetragonal," 10.360722999999997,"
mp-29055,KSb2,C2/m,-0.299,0,0.272,TRUE,221.903,6,FALSE,,4.23,monoclinic," 15.445999999985304,"
mp-5213,CdSnP2,I42d,-0.102,0,0.671,TRUE,210.015,8,FALSE,,4.634,tetragonal," 13.035046333333334,"
mp-567841,Be3P2,Ia3,-0.232,0,0.889,TRUE,529.505,40,FALSE,,2.232,cubic," 10.071000000000021,"
mp-9272,TlPt2S3,P3m1,-0.774,0,1.026,TRUE,280.187,12,FALSE,,8.187,trigonal," 12.533546000000014,"
mp-7756,SrLiSb,Pnma,-0.956,0,0.681,TRUE,333.445,12,FALSE,,4.309,orthorhombic," 10.126,"
mp-1103842,P4Os,P1,-0.38,0,1.303,TRUE,238.025,15,FALSE,,6.574,triclinic," 16.573681,"
mp-20554,InAgSe2,I42d,-0.418,0,0.361,TRUE,232.204,8,FALSE,,5.444,tetragonal," 10.145816999999997,"
mp-3481,KSnAs,P63mc,-0.402,0,0.339,TRUE,196.158,6,FALSE,,3.94,hexagonal," 11.031552999999994,"
mp-29238,TlAgSe,Pnma,-0.244,0,0.666,TRUE,306.22,12,FALSE,,8.486,orthorhombic," 15.145930333333334,"
mp-30390,HoSnAu,F43m,-0.851,0,0.025,TRUE,75.811,3,FALSE,,10.527,cubic," 22.53207833333333,"
mp-7430,Ca(CdSb)2,P3m1,-0.464,0,0.109,TRUE,148.159,5,FALSE,,5.698,trigonal," 39.14210466666668,"
mp-1100415,ZrSbRh,F43m,-1.001,0,1.183,TRUE,63.718,3,TRUE,,8.232,cubic," 16.58072533333322,"
mp-2624,AlSb,F43m,-0.159,0,1.261,TRUE,60.561,2,FALSE,,4.078,cubic," 12.00990000000001,"
mp-20331,CuSbSe2,Pnma,-0.203,0,0.607,TRUE,388.881,16,FALSE,,5.862,orthorhombic," 18.265838666666664,"
mp-31454,TaSbRu,F43m,-0.379,0,0.896,TRUE,59.396,3,FALSE,,11.289,cubic," 19.559226999999975,"
mp-551873,Ca4Bi2O,I4/mmm,-1.608,0,0.833,TRUE,189.474,7,FALSE,,5.208,tetragonal," 10.295534999999987,"
mp-866062,HfSiRu2,Fm3m,-0.8,0,0.332,TRUE,59.267,4,TRUE,,11.451,cubic," 26.689535999999933,"
mp-2517,Ca2Si,Pnma,-0.463,0,0.292,TRUE,332.053,12,FALSE,,2.165,orthorhombic," 15.762666666666666,"
mp-561511,FeAsS,P21/c,-0.672,0,0.736,TRUE,173.84,12,FALSE,,6.222,monoclinic," 25.017666704959797,"
mp-569501,LiCaBi,Pnma,-0.803,0,0.583,TRUE,319.14,12,FALSE,,5.328,orthorhombic," 12.943220333333334,"
mp-17862,Ag3Ge5P6,I43m,-0.031,0,0.577,TRUE,569.502,28,FALSE,,5.089,cubic," 17.136348333333384,"
mp-28921,Tl5Se2Br,I4/mcm,-0.498,0,0.618,TRUE,521.594,16,FALSE,,8.021,tetragonal," 11.318832000000016,"
mp-4964,YSbPt,F43m,-1.21,0,0.11,TRUE,72.723,3,FALSE,,9.265,cubic," 23.245040999999972,"
mp-5222,ReTeS,F43m,-0.598,0,0.133,TRUE,264.79,12,FALSE,,8.676,cubic," 16.675584000000015,"
mp-1069695,Sr(MgBi)2,P3m1,-0.577,0,0.384,FALSE,164.83,5,FALSE,,5.583,trigonal," 13.466276323670025,"
mp-569815,Si2Ru,Cmce,-0.545,0,0.482,TRUE,341.205,24,TRUE,,6.122,orthorhombic," 20.119666666667715,"
mp-675349,DyCuSe2,P3m1,-1.211,0,1.106,TRUE,93.309,4,TRUE,,6.833,trigonal," 10.093824666666626,"
mp-924130,TiNiSn,F43m,-0.535,0,0.453,TRUE,51.738,3,FALSE,,7.23,cubic," 24.271837544299625,"
mp-28011,Tl2Sn2S3,C2/c,-0.694,0,0.848,TRUE,414.474,14,FALSE,,5.949,monoclinic," 10.16573866666667,"
mp-19178,CoAgO2,P63/mmc,-1.081,0,1.359,TRUE,90.343,8,FALSE,,7.308,hexagonal," 10.634136333333368,"
mp-1029312,RbVN2,I42d,-0.928,0,0.707,TRUE,141.721,8,TRUE,,3.853,tetragonal," 15.284669333333339,"
mp-1213704,Cs3LiPb4,Cmcm,-0.252,0,0.758,FALSE,701.684,16,TRUE,,5.843,orthorhombic," 10.967697666666652,"
mp-29089,Sr2GeN2,P42/mbc,-0.817,0,0.053,TRUE,763.285,40,FALSE,,4.802,tetragonal," 34.79119733333332,"
mp-7392,Na2AgSb,Cmcm,-0.367,0,0.657,TRUE,215.732,8,FALSE,,4.243,orthorhombic," 12.073333333335961,"
mp-8630,SbIrS,P213,-0.704,0,1.512,TRUE,227.458,12,FALSE,,10.105,cubic," 16.750698,"
mp-1223306,La(Tl3Te2)3,I4/m,-0.513,0,0.819,FALSE,558.927,16,TRUE,,8.152,tetragonal," 16.344441666666697,"
mp-16313,TbSbPt,F43m,-1.212,0,0.097,TRUE,72.985,3,FALSE,,10.825,cubic," 23.271946999999987,"
mp-9397,HfTlCuSe3,Cmcm,-0.847,0,0.455,TRUE,291.419,12,FALSE,,7.787,orthorhombic," 11.509393666666666,"
mp-1029469,ZnSnN2,Pna21,-0.156,0,0.123,TRUE,223.187,16,TRUE,,6.313,orthorhombic," 158.864005,"
mp-1247,Sb2Ir,P21/c,-0.381,0,0.45,TRUE,273.846,12,FALSE,,10.569,monoclinic," 24.859999999999996,"
mp-28612,Na(LiSi2)3,Pnma,-0.13,0,0.118,TRUE,706.068,40,FALSE,,1.997,orthorhombic," 16.296333333333333,"
mp-30033,CoBr2,P3m1,-0.32,0,0.12,TRUE,83.569,3,FALSE,,4.346,trigonal," 12.102333333708176,"
mp-10194,LuSbPt,F43m,-1.204,0,0.181,TRUE,69.756,3,FALSE,,11.708,cubic," 36.19578300000002,"
mp-1210700,Mn(SbSe2)2,C2/m,-0.31,0,0.392,FALSE,380.356,14,TRUE,,5.364,monoclinic," 15.556896666666637,"
mp-29082,Ba5CrN5,C2/m,-0.895,0,0.134,TRUE,563.652,22,FALSE,,4.765,monoclinic," 14.812948333333333,"
mp-1220883,NaSbTe2,R3m,-0.446,0,0.703,TRUE,129.649,4,TRUE,,5.123,trigonal," 17.606120000000004,"
mp-38970,Ga2Te3,Cc,-0.321,0,1.014,TRUE,331.842,10,TRUE,,5.227,monoclinic," 11.672333333380905,"
mp-30456,SrLiBi,Pnma,-0.828,0,0.554,TRUE,354.129,12,FALSE,,5.693,orthorhombic," 12.512695666666668,"
mp-504498,K2CdPb,Ama2,-0.182,0,0.029,TRUE,324.39,8,FALSE,,4.073,orthorhombic," 19.895779333333333,"
mp-570238,P10Au7I,P31m,-0.138,0,0.498,TRUE,384.706,18,TRUE,,7.836,trigonal," 15.504836999999972,"
mp-989638,CaTcN3,C2/m,-0.602,0,0.638,TRUE,140.918,10,TRUE,,4.244,monoclinic," 12.283254666666672,"
mp-1219924,PRhS,P213,-0.938,0,1.453,FALSE,184.775,12,TRUE,,5.965,cubic," 17.811411999999994,"
mp-35162,MnIn2O4,Fd3m,-2.01,0,0.868,FALSE,193.227,14,TRUE,,5.991,cubic," 71.72435000000029,"
mp-29397,SiTePt,Pbca,-0.54,0,0.335,TRUE,496.911,24,FALSE,,9.377,orthorhombic," 23.567999999999994,"
mp-554921,Hg(BiS2)2,C2/m,-0.677,0,1.345,TRUE,372.921,14,FALSE,,6.651,monoclinic," 10.028241846860961,"
mp-871,FeSi,P213,-0.513,0,0.166,TRUE,88.015,8,FALSE,,6.334,cubic," 77.04500600000001,"
mp-924128,HfNiSn,F43m,-0.637,0,0.435,TRUE,57.152,3,TRUE,,10.34,cubic," 20.839392000000036,"
mp-546011,YZnAsO,P4/nmm,-1.985,0,1.202,TRUE,141.602,8,FALSE,,5.752,tetragonal," 10.256168999999973,"
mp-1201,Sb2Te3,R3m,-0.13,0,0.161,TRUE,169.893,5,FALSE,,6.122,trigonal," 44.217666666623934,"
mp-18300,Ca3AlSb3,Pnma,-0.838,0,0.294,TRUE,841.821,28,FALSE,,4.044,orthorhombic," 12.522,"
mp-2418,PdSe2,Pbca,-0.283,0,0.009,TRUE,295.758,12,FALSE,,5.937,orthorhombic," 13.417999999999997,"
mp-27904,FeSbS,P21/c,-0.583,0,0.618,TRUE,200.297,12,FALSE,,6.953,monoclinic," 27.680666666666667,"
mp-34202,Bi2Te3,R3m,-0.236,0,0.386,TRUE,178.033,5,FALSE,,7.469,trigonal," 32.602999999915035,"
mp-866105,Ca2HgPb,Fm3m,-0.601,0,0.071,TRUE,116.136,4,TRUE,,6.977,cubic," 242.78764100000058,"
mp-30253,Na10SrSn12,I43m,-0.279,0,0.774,TRUE,732.266,23,FALSE,,3.95,cubic," 15.194257666666658,"
mp-30460,YNiBi,F43m,-0.674,0,0.257,TRUE,68.578,3,FALSE,,8.634,cubic," 24.59433199999997,"
mp-559864,InSb2S4Br,C2/m,-0.75,0,1.536,TRUE,423.382,16,FALSE,,4.444,monoclinic," 19.462190666666668,"
mp-1029655,Sr3WN3,P63/m,-0.964,0,0.019,TRUE,297.105,14,TRUE,,5.463,hexagonal," 15.511038999999984,"
mp-8281,Ba(CdAs)2,P3m1,-0.641,0,0.158,TRUE,142.718,5,FALSE,,5.957,trigonal," 97.6322756666667,"
mp-867336,K2SrCdSb2,Pmc21,-0.62,0,0.315,TRUE,414.943,12,FALSE,,4.176,orthorhombic," 10.661370666666668,"
mp-979137,SrGaSiH,P3m1,-0.449,0,0.417,TRUE,75.662,4,TRUE,,4.092,trigonal," 14.497244000000405,"
mp-1029650,Na15Re7N19,P1,-0.425,0,0.182,TRUE,1319.404,82,TRUE,,4.819,triclinic," 62.04505866666667,"
mp-1103471,LaAsS,Pnma,-1.879,0,0.233,TRUE,286.18,12,FALSE,,5.707,orthorhombic," 31.97520201049041,"
mp-11692,Ba3(SiAs2)2,C2/c,-0.808,0,0.827,TRUE,564.969,18,FALSE,,4.514,monoclinic," 10.10733033333333,"
mp-14285,CoP2,P21/c,-0.533,0,0.545,TRUE,157.013,12,FALSE,,5.114,monoclinic," 24.938666666666666,"
mp-1095507,SbIrSe,P213,-0.462,0,1.271,TRUE,246.598,12,FALSE,,10.584,cubic," 18.407075999999996,"
mp-1101755,GePtS,Pca21,-0.807,0,0.99,TRUE,209.568,12,FALSE,,9.502,orthorhombic," 18.328481333333333,"
mp-762,PtS2,P3m1,-0.792,0,1.444,TRUE,69.383,3,FALSE,,6.204,trigonal," 10.142666666666667,"
mp-1317,CoSb3,Im3,-0.188,0,0.582,TRUE,378.68,16,FALSE,,7.441,cubic," 35.084000000000195,"
mp-2809,Sb2S3,Pnma,-0.647,0,1.309,TRUE,527.424,20,FALSE,,4.278,orthorhombic," 11.211396666666667,"
mp-2833,IrS2,Pnma,-0.843,0,0.564,TRUE,411.681,24,FALSE,,8.272,orthorhombic," 16.558066999999998,"
mp-864898,Na2TlBi,Fm3m,-0.293,0,0.13,TRUE,115.629,4,TRUE,,6.597,cubic," 74.52735900000006,"
mp-961687,ZrSnPd,F43m,-0.791,0,0.183,TRUE,65.702,3,TRUE,,7.996,cubic," 20.778000000002073,"
mp-1118943,Cs3Re2N5,I41,-0.427,0,0.321,FALSE,977.393,40,TRUE,,5.716,tetragonal," 22.371375,"
mp-766,As2Ru,Pnnm,-0.398,0,0.561,TRUE,103.497,6,FALSE,,8.051,orthorhombic," 23.544,"
mp-7067,Ca(CdAs)2,P3m1,-0.597,0,0.219,TRUE,124.562,5,FALSE,,5.529,trigonal," 39.49964266666666,"
mp-17558,Ca5(GaAs3)2,Pbam,-0.95,0,0.121,TRUE,634.752,26,FALSE,,4.13,orthorhombic," 13.987,"
mp-2071,Zn3P2,P42/nmc,-0.188,0,0.605,TRUE,756.171,40,FALSE,,4.536,tetragonal," 13.726666666666672,"
mp-2695,Sb2Os,Pnnm,-0.016,0,0.404,TRUE,132.351,6,FALSE,,10.884,orthorhombic," 21.894666666666662,"
mp-4024,DyAgTe2,P421m,-0.915,0,1.311,TRUE,239.859,8,FALSE,,7.277,tetragonal," 11.262915333333334,"
mp-8439,Ca5(AlSb3)2,Pbam,-0.773,0,0.218,TRUE,771.995,26,FALSE,,4.237,orthorhombic," 15.282000000000002,"
mp-29187,Co(SiP)3,P21,-0.319,0,1.347,TRUE,434.459,28,FALSE,,3.61,monoclinic," 18.883896666666665,"
mp-4226,LiCrS2,P3m1,-1.333,0,0.727,TRUE,63.73,4,FALSE,,3.207,trigonal," 10.238462333333327,"
mp-730,P2Pt,Pa3,-0.683,0,1.126,TRUE,190.584,12,FALSE,,8.958,cubic," 19.64533333333333,"
mp-1207629,YRhO3,Pnma,-2.57,0,0.813,FALSE,236.233,20,TRUE,,6.743,orthorhombic," 10.768693333333331,"
mp-1218926,SnPtSe,P213,-0.566,0,0.596,FALSE,259.642,12,TRUE,,10.047,cubic," 26.736913000000012,"
mp-3839,GaCuTe2,I42d,-0.282,0,0.555,TRUE,225.142,8,FALSE,,5.73,tetragonal," 15.013390333333335,"
mp-570213,LiMgBi,F43m,-0.377,0,0.359,TRUE,80.335,3,FALSE,,4.966,cubic," 13.006579999999987,"
mp-8208,Mg(PtO2)3,Cmmm,-1.389,0,0.359,TRUE,116.441,10,FALSE,,10.062,orthorhombic," 15.015071999999838,"
mp-1013527,BeGeP2,I42d,-0.27,0,0.912,TRUE,142.403,8,TRUE,,3.349,tetragonal," 10.623756666666663,"
mp-978847,SrGaGeH,P3m1,-0.49,0,0.426,TRUE,78.193,4,FALSE,,4.905,trigonal," 38.315080333333334,"
mp-1079772,Ca(InP)2,P63/mmc,-0.583,0,0.409,TRUE,253.639,10,FALSE,,4.343,hexagonal," 11.753194086670808,"
mp-567318,TlSbSe2,P21/m,-0.331,0,0.841,TRUE,473.048,16,TRUE,,6.797,monoclinic," 16.700000000000003,"
mp-10967,CdCu2GeSe4,I42m,-0.342,0,0.247,TRUE,191.22,8,FALSE,,5.453,tetragonal," 18.685768999999997,"
mp-8277,Sr(CdP)2,P3m1,-0.595,0,0.71,TRUE,122.303,5,FALSE,,5.083,trigonal," 12.031000000000153,"
mp-189,SiRu,P213,-0.65,0,0.254,TRUE,106.765,8,FALSE,,8.035,cubic," 44.437724,"
mp-13801,Tl2Pt2O7,Fd3m,-1.161,0,0.865,TRUE,276.032,22,FALSE,,10.96,cubic," 10.155568999999977,"
mp-16337,Ga2HgTe4,I4,-0.3,0,1.119,TRUE,236.184,7,FALSE,,5.979,tetragonal," 11.608424666666664,"
mp-22386,InAgTe2,I42d,-0.286,0,0.065,TRUE,280.93,8,FALSE,,5.649,tetragonal," 12.675541999999995,"
mp-1029267,CaZrN2,R3m,-1.677,0,0.421,TRUE,54.123,4,TRUE,,4.888,trigonal," 10.771179999999996,"
mp-1078636,Ba2ZnAs2,Ibam,-0.95,0,0.745,TRUE,314.628,10,FALSE,,5.171,orthorhombic," 10.777731666666668,"
mp-29199,BaCuN,C2/c,-0.476,0,0.048,TRUE,381.589,18,FALSE,,5.61,monoclinic," 12.851891666666669,"
mp-607450,In3Ru,P42/mnm,-0.141,0,0.247,TRUE,370.164,16,FALSE,,7.994,tetragonal," 25.289459800878763,"
mp-18500,K3Sn4Au,Pmmn,-0.34,0,0.613,TRUE,596.496,16,FALSE,,4.393,orthorhombic," 23.755988333333335,"
mp-20726,SrCaSn,Pnma,-0.683,0,0.3,TRUE,424.53,12,FALSE,,3.855,orthorhombic," 18.108999999999995,"
mp-29208,Ca(MgBi)2,P3m1,-0.533,0,0.389,TRUE,154.58,5,FALSE,,5.443,trigonal," 16.751003666666666,"
mp-3716,TbNiSb,F43m,-0.903,0,0.384,TRUE,64.623,3,FALSE,,8.721,cubic," 18.853474999999953,"
mp-697047,Li3H4Rh,Cmcm,-0.488,0,0.69,TRUE,150.483,16,FALSE,,2.82,orthorhombic," 11.289796999999972,"
mp-866229,Ca2SnHg,Fm3m,-0.662,0,0.132,TRUE,114.034,4,TRUE,,5.817,cubic," 225.3748429999999,"
mvc-14149,CoO2,I4/m,-1.17,0,0.59,TRUE,129.644,12,TRUE,,4.659,tetragonal," 14.005065227023572,"
mp-1080848,KVN2,Pbca,-0.94,0,0.895,FALSE,1052.259,64,TRUE,,2.981,orthorhombic," 12.871944333333333,"
mp-4524,ZnGeP2,I42d,-0.211,0,1.203,TRUE,164.25,8,FALSE,,4.044,tetragonal," 12.117934,"
mp-17173,Rh2S3,Pbcn,-0.869,0,0.192,TRUE,321.405,20,FALSE,,6.241,orthorhombic," 25.082000000000004,"
mp-21276,PbS,Fm3m,-0.865,0,0.993,TRUE,54.174,2,FALSE,,7.334,cubic," 16.395291706067255,"
mp-820,HgSe,F43m,-0.206,0,0.124,TRUE,61.749,2,FALSE,,7.518,cubic," 16.742244000000024,"
mp-19886,ThSnPt,F43m,-1.075,0,0.881,TRUE,79.311,3,FALSE,,11.428,cubic," 25.64858999999997,"
mp-27488,Ta3N5,Cmcm,-1.286,0,1.257,TRUE,208.844,16,FALSE,,9.746,orthorhombic," 10.830666666602186,"
mp-571306,Ca2Zn2CuP3,P63/mmc,-0.765,0,0.278,TRUE,305.041,16,FALSE,,4,hexagonal," 11.948000000000022,"
mp-3161,LiAlSi,F43m,-0.216,0,0.143,TRUE,52.355,3,FALSE,,1.967,cubic," 15.258516000000022,"
mp-8279,Ba(CdP)2,P3m1,-0.588,0,0.682,TRUE,131.61,5,FALSE,,5.351,trigonal," 12.94666666666667,"
mp-27173,P4Ru,P1,-0.447,0,1.125,TRUE,236.807,15,FALSE,,4.732,triclinic," 17.445333333333338,"
mp-27648,Te2Br,Pnma,-0.168,0,0.769,TRUE,905.837,24,FALSE,,4.914,orthorhombic," 10.690666666666667,"
mp-4510,DyNiSb,F43m,-0.904,0,0.367,TRUE,63.957,3,FALSE,,8.904,cubic," 18.729587000000024,"
mp-1080847,Mg3SbN,Pm3m,-0.688,0,0.699,FALSE,83.886,5,TRUE,,4.131,cubic," 10.756434932820843,"
mp-23222,Li3Bi,Fm3m,-0.528,0,0.38,TRUE,76.44,4,FALSE,,4.992,cubic," 13.776666666678421,"
mp-1079149,Ba2ZnSb2,Ibam,-0.874,0,0.391,TRUE,365.824,10,FALSE,,5.298,orthorhombic," 12.315130666666676,"
mp-924129,ZrNiSn,F43m,-0.69,0,0.52,TRUE,58.511,3,TRUE,,7.624,cubic," 21.96650900000003,"
mp-760,FeSe2,Pnnm,-0.355,0,0.405,TRUE,100.133,6,FALSE,,7.09,orthorhombic," 26.700666666666667,"
mp-927,CuP2,P21/c,-0.112,0,0.965,TRUE,194.5,12,FALSE,,4.286,monoclinic," 16.290000000000003,"
mp-867207,Sr2HgPb,Fm3m,-0.6,0,0.181,TRUE,136.499,4,TRUE,,7.093,cubic," 95.5694480000001,"
mp-1222618,Li2ZnCdP2,R3m,-0.492,0,0.881,FALSE,105.58,6,TRUE,,3.989,trigonal," 10.354285000000003,"
mp-4468,CuSbS2,Pnma,-0.574,0,0.737,TRUE,338.226,16,FALSE,,4.898,orthorhombic," 13.924892999999997,"
mp-1221753,MnCr4CdSe8,F43m,-0.542,0,0.471,FALSE,313.932,14,TRUE,,5.327,cubic," 12.562387000000456,"
mp-2242,GeS,Pnma,-0.585,0,1.237,TRUE,175.866,8,FALSE,,3.955,orthorhombic," 10.986487000000002,"
mp-4876,Tl3SbSe3,P213,-0.363,0,1.111,TRUE,914.561,28,FALSE,,7.058,cubic," 10.592975999999998,"
mp-676274,Tl9SbSe6,I4/m,-0.355,0,0.764,TRUE,488.916,16,TRUE,,8.27,tetragonal," 17.04500183562583,"
mp-8195,Ba2GeAs2,P21/c,-0.895,0,0.558,TRUE,651.389,20,FALSE,,5.069,monoclinic," 11.877695333333333,"
mp-8276,Sr(ZnP)2,P3m1,-0.691,0,0.829,TRUE,104.541,5,FALSE,,4.454,trigonal," 11.103333333333348,"
mp-997086,SrAgO2,C2/m,-1.837,0,0.743,TRUE,128.366,8,TRUE,,5.886,monoclinic," 12.107169666666676,"
mp-2231,SnS,Pnma,-0.778,0,1.111,TRUE,204.376,8,FALSE,,4.9,orthorhombic," 13.144832333333332,"
mp-267,Te2Ru,Pnnm,-0.338,0,0.319,TRUE,140.771,6,FALSE,,8.405,orthorhombic," 20.930999999999997,"
mp-552098,Bi2SeO2,I4/mmm,-1.264,0,0.399,TRUE,95.658,5,FALSE,,9.182,tetragonal," 12.753102666666678,"
mp-9565,Ca(MgSb)2,P3m1,-0.713,0,0.792,TRUE,144.701,5,FALSE,,3.812,trigonal," 10.626666666666814,"
mp-1105594,La3Cu3Sb4,I43d,-0.838,0,0.426,TRUE,483.809,20,FALSE,,7.512,cubic," 25.54662800000001,"
mp-28987,NaPt2Se3,P63mc,-0.581,0,0.998,TRUE,570.842,24,FALSE,,7.564,hexagonal," 12.080409333333337,"
mp-1217120,Ti2FeNiSb2,R3m,-0.581,0,0.963,TRUE,104.345,6,TRUE,,7.222,trigonal," 22.61778903561098,"
mp-1228823,AsIrS,P213,-0.798,0,1.865,FALSE,200.29,12,TRUE,,9.922,cubic," 15.719452999999996,"
mp-19,Te,P3121,0,0,0.575,TRUE,105.094,3,FALSE,,6.048,trigonal," 43.624508333333345,"
mp-1079885,LiSbS2,C2/c,-1.002,0,0.948,FALSE,171.577,8,FALSE,,3.732,monoclinic," 10.419872666666668,"
mp-4573,TlSbTe2,R3m,-0.231,0,0.132,TRUE,138.666,4,FALSE,,6.962,trigonal," 34.65800000000309,"
mp-570553,FeP4,C2/c,-0.372,0,0.897,TRUE,292.018,20,FALSE,,4.088,monoclinic," 19.46600000000012,"
mp-9437,NbFeSb,F43m,-0.338,0,0.743,TRUE,53.167,3,FALSE,,8.449,cubic," 24.718901000000002,"
mp-16252,BaCaGe,Pnma,-0.587,0,0.191,TRUE,408.531,12,FALSE,,4.065,orthorhombic," 22.157999999999998,"
mp-4763,ZnSiP2,I42d,-0.314,0,1.364,TRUE,154.878,8,FALSE,,3.333,tetragonal," 10.516784,"
mp-861979,Ir2S3,R3c,-0.764,0,1.145,TRUE,166.763,10,TRUE,,9.572,trigonal," 19.16966666671784,"
mp-1522,FeS2,Pnnm,-0.955,0,0.978,TRUE,81.421,6,FALSE,,4.894,orthorhombic," 21.05966666666667,"
mp-1095180,Ca2CdAs2,Cmc21,-0.934,0,0.853,TRUE,259.327,10,FALSE,,4.385,orthorhombic," 10.765155666666653,"
mp-7188,Al2Os,I4/mmm,-0.562,0,0.311,TRUE,42.248,3,FALSE,,9.598,tetragonal," 17.302666666650214,"