Materials Id,Formula,Spacegroup,Formation Energy (eV),E Above Hull (eV),Band Gap (eV),Has Bandstructure,Volume,Nsites,Theoretical,Count,Density (gm/cc),Crystal System,Polycrystalline Dielectric Constant
mp-11836,ErSbPd,F43m,-1.117,0,0.281,TRUE,70.794,3,FALSE,,9.275,cubic," 18.343393999999993,"
mp-1219274,ScNb(NiSn)2,R3m,-0.531,0,0.436,TRUE,111.635,6,TRUE,,7.328,trigonal," 23.449589666666597,"
mp-14500,Sr(As3Pt2)2,C2/c,-0.672,0,0.19,TRUE,447.826,22,FALSE,,9.77,monoclinic," 25.6449999999935,"
mp-1101894,FeAsSe,P21/c,-0.322,0,0.479,TRUE,191.797,12,FALSE,,7.263,monoclinic," 27.313014,"
mp-7438,KZnSb,P63/mmc,-0.4,0,0.443,TRUE,194.907,6,FALSE,,3.855,hexagonal," 24.779698333333368,"
mp-643683,Ba5(Ga3H)2,P3c1,-0.503,0,0.389,TRUE,763.772,26,FALSE,,4.813,trigonal," 17.86500433333335,"
mp-1102534,POsS,P21/c,-0.681,0,0.993,TRUE,184.717,12,FALSE,,9.107,monoclinic," 16.702103000000005,"
mp-12364,BaCu2SnSe4,Ama2,-0.742,0,0.459,TRUE,437.99,16,FALSE,,5.3,orthorhombic," 11.047999999988951,"
mp-541837,Bi2Se3,R3m,-0.388,0,0.543,TRUE,154.107,5,FALSE,,7.056,trigonal," 17.33633333354044,"
mp-16329,ErSbPt,F43m,-1.217,0,0.287,TRUE,71.27,3,FALSE,,11.279,cubic," 26.099631999999968,"
mp-31243,BaAs2,Pc,-0.787,0,0.432,TRUE,553.948,18,FALSE,,5.165,monoclinic," 14.735270666666667,"
mp-17885,Ba2Ge2Te5,Pna21,-0.854,0,0.773,TRUE,1288.239,36,FALSE,,5.455,orthorhombic," 11.220919,"
mp-5920,LiAlGe,F43m,-0.262,0,0.087,TRUE,54.516,3,FALSE,,3.246,cubic," 16.564550000000036,"
mp-1078443,As2Se3,C2/m,-0.118,0,0.625,TRUE,256.776,10,FALSE,,5.002,monoclinic," 17.126107666666666,"
mp-1078709,Na2BiAu,Cmcm,-0.372,0,0.57,TRUE,221.893,8,FALSE,,6.764,orthorhombic," 20.01236833333333,"
mp-1207095,SiPAu,R3m,-0.2,0,1.003,TRUE,62.144,3,TRUE,,6.841,trigonal," 13.283499666666666,"
mp-4840,GaCuSe2,I42d,-0.478,0,0.458,TRUE,180.762,8,FALSE,,5.35,tetragonal," 203.81666666312984,"
mp-28029,TcP3,Pnma,-0.444,0,0.386,TRUE,248.981,16,FALSE,,5.093,orthorhombic," 20.69916533333333,"
mp-23558,Ag2BiO3,Pnn2,-0.929,0,0.448,TRUE,382.081,24,FALSE,,8.218,orthorhombic," 12.944955,"
mp-1214794,AsRuSe,P21/c,-0.417,0,0.748,FALSE,216.835,12,TRUE,,7.81,monoclinic," 21.990949,"
mp-9899,BaAgP,P63/mmc,-0.727,0,0.191,TRUE,160.76,6,FALSE,,5.705,hexagonal," 28.198885999999973,"
mp-288,PtS,P42/mmc,-0.737,0,0.471,TRUE,76.47,4,FALSE,,9.865,tetragonal," 14.463608000000002,"
mp-863707,KNa2Bi,Fm3m,-0.382,0,0.682,TRUE,127.038,4,TRUE,,3.844,cubic," 17.72046699999999,"
mp-1477,BaSi2,Pnma,-0.362,0,0.791,TRUE,708.483,24,FALSE,,3.628,orthorhombic," 12.342999999999998,"
mp-27821,Ag3P11,Cm,-0.025,0,1.096,TRUE,293.668,14,FALSE,,3.756,monoclinic," 11.495666666650138,"
mp-9570,Ca(CdP)2,P3m1,-0.571,0,0.821,TRUE,114.369,5,FALSE,,4.746,trigonal," 12.056000000000283,"
mp-11520,YNiSb,F43m,-0.9,0,0.349,TRUE,64.422,3,FALSE,,6.943,cubic," 18.552163000000014,"
mp-7427,Ba(ZnAs)2,Pnma,-0.678,0,0.297,TRUE,480.14,20,FALSE,,5.782,orthorhombic," 17.575,"
mp-1217269,TeSe2,C2,-0.005,0,0.897,TRUE,92.249,3,TRUE,,5.14,monoclinic," 17.515939,"
mp-16608,Si3Os2,Pbcn,-0.453,0,0.857,TRUE,570.554,40,FALSE,,10.82,orthorhombic," 18.948000000000004,"
mp-30950,Sr3GeO,Pnma,-1.561,0,0.577,TRUE,527.978,20,FALSE,,4.422,orthorhombic," 13.54974133333333,"
mp-640889,Tm(CuTe)3,Pmn21,-0.523,0,0.401,TRUE,667.726,28,FALSE,,7.385,orthorhombic," 12.909478,"
mp-15953,P2Rh,P21/c,-0.65,0,0.542,TRUE,184.38,12,FALSE,,5.939,monoclinic," 21.840999999999998,"
mp-22791,TlInTe2,I4/mcm,-0.363,0,0.65,TRUE,277.374,8,FALSE,,6.877,tetragonal," 12.165952999999996,"
mp-9569,Ca(ZnP)2,P3m1,-0.702,0,0.929,TRUE,97.129,5,FALSE,,3.981,trigonal," 11.11882999999999,"
mp-998609,CsNaF3,Pnma,-2.43,0,0.019,TRUE,395.249,20,TRUE,,3.578,orthorhombic," 20.808738333333334,"
mp-29529,NaSnP,P63mc,-0.309,0,0.65,TRUE,157.034,6,FALSE,,3.652,hexagonal," 10.692239333333324,"
mp-7956,Na3Sb,P63/mmc,-0.436,0,0.395,TRUE,239.286,8,FALSE,,2.647,hexagonal," 10.976000000000127,"
mp-1008506,BaGaSiH,P3m1,-0.449,0,0.785,TRUE,84.451,4,TRUE,,4.643,trigonal," 16.54851497603612,"
mp-1101765,BiRhSe,P213,-0.409,0,0.319,TRUE,259.972,12,FALSE,,9.986,cubic," 33.290600999999995,"
mp-1189341,HfTl2PbSe4,C2/c,-0.817,0,0.964,TRUE,466.232,16,FALSE,,7.909,monoclinic," 11.119707999999989,"
mp-3332,NaCrSe2,R3m,-0.81,0,0.868,TRUE,84.673,4,FALSE,,4.568,trigonal," 10.539034666666668,"
mp-3432,ScNiSb,F43m,-0.9,0,0.316,TRUE,57.046,3,FALSE,,6.561,cubic," 18.301273000000023,"
mp-3785,TlGaTe2,I4/mcm,-0.369,0,0.581,TRUE,260.13,8,FALSE,,6.758,tetragonal," 13.320920666666659,"
mp-17524,GeAs2,Pbam,-0.043,0,0.721,TRUE,624.727,24,FALSE,,4.731,orthorhombic," 13.120666666666665,"
mp-31002,Rb2Te5,C2/m,-0.54,0,0.396,TRUE,287.205,7,FALSE,,4.677,monoclinic," 16.72133333333374,"
mp-7770,Sr(ZnAs)2,P3m1,-0.669,0,0.256,TRUE,115.352,5,FALSE,,5.302,trigonal," 15.046333333333399,"
mp-971673,BiS2,C2/m,-0.7,0,1.189,TRUE,301.232,12,FALSE,,6.022,monoclinic," 12.299302333333339,"
mp-28413,Na2(GaSb)3,Pnma,-0.269,0,0.325,TRUE,873.466,32,FALSE,,4.718,orthorhombic," 18.796666666666667,"
mp-1106051,Y3Cu3Sb4,I43d,-0.725,0,0.457,TRUE,435.878,20,FALSE,,7.196,cubic," 26.530203000000014,"
mp-20027,FeP2,Pnnm,-0.537,0,0.471,TRUE,76.291,6,FALSE,,5.128,orthorhombic," 23.048333333333332,"
mp-561786,Cs(TeO3)2,R3m,-1.657,0,0.514,TRUE,294.133,18,FALSE,,5.466,trigonal," 10.557528333333332,"
mp-5967,TiCoSb,F43m,-0.661,0,1.067,TRUE,51.177,3,FALSE,,7.416,cubic," 20.46137399999998,"
mp-865101,NaLi2Bi,Fm3m,-0.487,0,0.352,TRUE,86.168,4,TRUE,,4.738,cubic," 16.512548000000006,"
mp-865799,Yb2AsAu,Fm3m,-1.084,0,0.162,TRUE,92.124,4,TRUE,,11.139,cubic," 43.63964800000013,"
mp-1009087,BeSiAs2,I42d,-0.212,0,1.023,TRUE,155.051,8,TRUE,,4.004,tetragonal," 10.901283333333332,"
mp-13654,Y3Sb4Au3,I43d,-0.82,0,0.581,TRUE,494.584,20,FALSE,,9.029,cubic," 27.056649333333315,"
mp-2008,FeAs2,Pnnm,-0.265,0,0.286,TRUE,92.012,6,FALSE,,7.424,orthorhombic," 30.61366666666667,"
mp-27736,Re2P5,P1,-0.367,0,0.485,TRUE,444.606,28,FALSE,,7.877,triclinic," 18.955333333333332,"
mp-34126,Cu4SnP10,R3m,-0.124,0,0.367,TRUE,274.444,15,FALSE,,4.13,trigonal," 16.986648000000006,"
mp-17568,Ag3Sn2(GeP2)3,I43m,-0.045,0,0.341,TRUE,599.975,28,FALSE,,5.34,cubic," 23.716828999999887,"
mp-35907,La5TlTe8,I4,-1.478,0,1.081,TRUE,464.682,14,TRUE,,6.86,tetragonal," 12.47859299999999,"
mp-7936,LiNbS2,P63/mmc,-1.635,0,0.806,TRUE,128.365,8,FALSE,,4.242,hexagonal," 12.006016333333315,"
mp-989635,CaMoN3,C2/m,-0.808,0,0.906,TRUE,143.824,10,TRUE,,4.111,monoclinic," 10.153964666666665,"
mp-1029863,K15Re7N19,P1,-0.457,0,0.191,TRUE,1628.01,82,TRUE,,4.398,triclinic," 13.481802666666667,"
mp-3167,Hg2GeSe4,I4,-0.234,0,0.628,TRUE,198.582,7,FALSE,,6.603,tetragonal," 10.698100333333334,"
mp-5710,Ag3Te2Au,I4132,-0.068,0,0.196,TRUE,586.857,24,FALSE,,8.78,cubic," 23.511000000000042,"
mp-1821,WSe2,P63/mmc,-0.558,0,1.511,TRUE,144.457,6,FALSE,,7.857,hexagonal," 10.132666666667012,"
mp-14501,Ba(As3Pt2)2,C2/c,-0.663,0,0.33,TRUE,456.374,22,FALSE,,9.949,monoclinic," 25.16033333333479,"
mp-867169,Sr2SnHg,Fm3m,-0.654,0,0.36,TRUE,132.939,4,TRUE,,6.177,cubic," 69.21734400000004,"
mp-11152,SiSbPt,Pbca,-0.487,0,0.174,TRUE,477.157,24,FALSE,,9.603,orthorhombic," 32.845666666666666,"
mp-938,GeTe,R3m,-0.095,0,0.822,TRUE,56.265,2,FALSE,,5.91,trigonal," 37.75363866666665,"
mp-9571,Ca(ZnAs)2,P3m1,-0.662,0,0.391,TRUE,107.382,5,FALSE,,4.96,trigonal," 14.399996333333343,"
mp-1103213,SbTeOs,P21/c,-0.085,0,0.981,TRUE,273.734,12,FALSE,,10.667,monoclinic," 19.647299,"
mp-12855,Cu2HgGeSe4,I42m,-0.244,0,0.122,TRUE,192.483,8,FALSE,,6.178,tetragonal," 24.000145666666665,"
mp-7421,KZnAs,P63/mmc,-0.476,0,0.274,TRUE,164.528,6,FALSE,,3.622,hexagonal," 34.678117666666644,"
mp-1078366,Bi2S2O,P4/nmm,-1.07,0,1.166,TRUE,225.308,10,FALSE,,7.342,tetragonal," 14.484660999999994,"
mp-1100408,TaSnRh,F43m,-0.458,0,1.14,TRUE,59.672,3,TRUE,,11.202,cubic," 20.58147433333257,"
mp-27809,Ba(GeP)2,P42mc,-0.506,0,0.515,TRUE,513.837,20,FALSE,,4.454,tetragonal," 12.786666666666667,"
mp-755363,Ba3SiO,Pnma,-1.334,0,0.508,TRUE,640.444,20,TRUE,,4.73,orthorhombic," 15.187331666666667,"
mp-10485,BaLiSb,P63/mmc,-0.945,0,0.695,TRUE,194.627,6,FALSE,,4.539,hexagonal," 10.442355000000035,"
mp-1008858,NdBiPd,F43m,-0.945,0,0.09,TRUE,80.958,3,FALSE,,9.428,cubic," 25.990782000000006,"
mp-7049,ZrTlCuS3,Cmcm,-1.314,0,0.608,TRUE,264.616,12,FALSE,,5.715,orthorhombic," 10.195657333333335,"
mp-1228724,AsRhSe,P213,-0.576,0,0.956,FALSE,217.396,12,TRUE,,7.846,cubic," 22.034559,"
mp-12814,Ba3SbN,P63/mmc,-0.892,0,0.699,TRUE,343.916,10,FALSE,,5.289,hexagonal," 11.140000000000027,"
mp-5881,CoSbS,Pbca,-0.588,0,0.405,TRUE,407.873,24,FALSE,,6.929,orthorhombic," 29.004999999999995,"
mp-867339,CsK2Bi,Fm3m,-0.346,0,0.569,TRUE,177.37,4,TRUE,,3.933,cubic," 11.573917,"
mp-1189464,ZrTl2PbSe4,C2/c,-0.819,0,1.02,TRUE,471.087,16,FALSE,,7.212,monoclinic," 11.804470333333322,"
mp-15339,Sr3As4,Fdd2,-0.959,0,0.677,TRUE,409.671,14,FALSE,,4.56,orthorhombic,11.66733333